 Gaussian 09, Revision E.01,
 Gaussian 09:  ES64L-G09RevE.01 30-Nov-2015

 -----------------------------------------------------------
 #P RwB97XD/6-311G(d,p)int(grid=ultrafine) opt(modred,loose)
 -----------------------------------------------------------

 --------------------
 AB2-mult-scan2_1.gjf
 --------------------
 Symbolic Z-matrix:
 Charge =  0 Multiplicity = 1

 SCF Done:  E(RwB97XD) =  -164.102181931     A.U. after   12 cycles
 Optimization completed.
    -- Stationary point found.
 SCF Done:  E(RwB97XD) =  -164.096770553     A.U. after   12 cycles
 SCF Done:  E(RwB97XD) =  -164.097065703     A.U. after   10 cycles
 SCF Done:  E(RwB97XD) =  -164.097097846     A.U. after    8 cycles
 Optimization completed.
    -- Stationary point found.

                         Standard orientation:
 ---------------------------------------------------------------------
 Center     Atomic      Atomic             Coordinates (Angstroms)
 Number     Number       Type             X           Y           Z
 ---------------------------------------------------------------------
      1          5           0       -0.039161   -1.179973    0.000000
      2          7           0        1.206131    0.123820    0.000000
      3          7           0       -1.175298   -0.095885    0.000000
      4          5           0        0.000000    1.136478    0.000000
      5          1           0       -1.764623   -0.091643    0.821358
      6          1           0       -1.764623   -0.091643   -0.821358
      7          1           0       -0.087514    1.766861    1.022824
      8          1           0       -0.087514    1.766861   -1.022824
      9          1           0        1.790553    0.129986   -0.823809
     10          1           0        1.790553    0.129986    0.823809
     11          1           0        0.051573   -1.794240   -1.027605
     12          1           0        0.051573   -1.794240    1.027605
 ---------------------------------------------------------------------

 The electronic state is 1-A'.
 Alpha  occ. eigenvalues --  -14.45024 -14.44122  -6.84003  -6.82862  -1.00502
 Alpha  occ. eigenvalues --   -0.95965  -0.64846  -0.61533  -0.59499  -0.58423
 Alpha  occ. eigenvalues --   -0.47888  -0.46384  -0.45272  -0.39506  -0.37893
 Alpha  occ. eigenvalues --   -0.35862
 Alpha virt. eigenvalues --    0.10482   0.11210   0.14083   0.18085   0.18982
 Alpha virt. eigenvalues --    0.20382   0.21083   0.22580   0.23700   0.24442
 Alpha virt. eigenvalues --    0.24901   0.26173   0.33521   0.39106   0.40786

 Mulliken charges:
               1
     1  B    0.101307
     2  N   -0.474240
     3  N   -0.429850
     4  B    0.089772
     5  H    0.243727
     6  H    0.243727
     7  H   -0.069529
     8  H   -0.069529
     9  H    0.241271
    10  H    0.241271
    11  H   -0.058964
    12  H   -0.058964
 Sum of Mulliken charges =   0.00000

 Dipole moment (field-independent basis, Debye):
    X=             -0.1923    Y=             -0.1934    Z=             -0.0000  Tot=              0.2727
 Quadrupole moment (field-independent basis, Debye-Ang):
   XX=            -18.8682   YY=            -36.3704   ZZ=            -27.2554
   XY=              1.0308   XZ=             -0.0000   YZ=              0.0000

 Normal termination of Gaussian 09 at Thu Mar  9 14:55:35 2017.
