 Gaussian 09, Revision E.01,
 Gaussian 09:  ES64L-G09RevE.01 30-Nov-2015

 -----------------------------------------------------------
 #P RwB97XD/6-311G(d,p)int(grid=ultrafine) opt(modred,loose)
 -----------------------------------------------------------

 --------------------
 AB2-mult-scan6_2.gjf
 --------------------
 Symbolic Z-matrix:
 Charge =  0 Multiplicity = 1

 SCF Done:  E(RwB97XD) =  -164.063793963     A.U. after   14 cycles
 Optimization completed.
    -- Stationary point found.
 SCF Done:  E(RwB97XD) =  -164.062600311     A.U. after   13 cycles
 SCF Done:  E(RwB97XD) =  -164.062947397     A.U. after   11 cycles
 SCF Done:  E(RwB97XD) =  -164.063046930     A.U. after   11 cycles
 SCF Done:  E(RwB97XD) =  -164.063082382     A.U. after   10 cycles
 SCF Done:  E(RwB97XD) =  -164.063125927     A.U. after   10 cycles
 Optimization completed.
    -- Stationary point found.

                         Standard orientation:
 ---------------------------------------------------------------------
 Center     Atomic      Atomic             Coordinates (Angstroms)
 Number     Number       Type             X           Y           Z
 ---------------------------------------------------------------------
      1          5           0        0.000000   -1.240513    0.000000
      2          7           0        1.278445    0.553523    0.000000
      3          7           0       -1.278509   -0.553415    0.000000
      4          5           0       -0.000281    1.240777    0.000000
      5          1           0       -1.834795   -0.509745    0.837708
      6          1           0       -1.834795   -0.509745   -0.837708
      7          1           0       -0.405289    1.671764    1.039450
      8          1           0       -0.405289    1.671764   -1.039450
      9          1           0        1.834946    0.509741   -0.837592
     10          1           0        1.834946    0.509741    0.837592
     11          1           0        0.406065   -1.672792   -1.038609
     12          1           0        0.406065   -1.672792    1.038609
 ---------------------------------------------------------------------

 The electronic state is 1-A'.
 Alpha  occ. eigenvalues --  -14.41917 -14.41915  -6.84463  -6.84457  -0.97236
 Alpha  occ. eigenvalues --   -0.95276  -0.62456  -0.60029  -0.59826  -0.58357
 Alpha  occ. eigenvalues --   -0.47730  -0.47435  -0.42731  -0.40112  -0.39598
 Alpha  occ. eigenvalues --   -0.32334
 Alpha virt. eigenvalues --    0.08532   0.11001   0.14539   0.15275   0.16971
 Alpha virt. eigenvalues --    0.19395   0.20622   0.20888   0.23720   0.24676
 Alpha virt. eigenvalues --    0.26845   0.27783   0.33829   0.34494   0.39261

 Mulliken charges:
               1
     1  B    0.158207
     2  N   -0.519234
     3  N   -0.519130
     4  B    0.158507
     5  H    0.235268
     6  H    0.235268
     7  H   -0.054808
     8  H   -0.054808
     9  H    0.235216
    10  H    0.235216
    11  H   -0.054851
    12  H   -0.054851
 Sum of Mulliken charges =   0.00000

 Dipole moment (field-independent basis, Debye):
    X=             -0.0011    Y=              0.0021    Z=              0.0000  Tot=              0.0024
 Quadrupole moment (field-independent basis, Debye-Ang):
   XX=            -20.7239   YY=            -33.1731   ZZ=            -26.6244
   XY=              2.8111   XZ=             -0.0000   YZ=              0.0000

 Normal termination of Gaussian 09 at Thu Mar  9 15:14:12 2017.
