 Gaussian 09, Revision D.01,
 Gaussian 09:  AS64L-G09RevD.01 24-Apr-2013

 -----------------------------------------------------------
 #P RwB97XD/6-311G(d,p)int(grid=ultrafine) opt(modred,loose)
 -----------------------------------------------------------

 --------------------
 AB2-mult-scan4_1.gjf
 --------------------
 Symbolic Z-matrix:
 Charge =  0 Multiplicity = 1

 SCF Done:  E(RwB97XD) =  -164.081653270     A.U. after   13 cycles
 Optimization completed.
    -- Stationary point found.
 SCF Done:  E(RwB97XD) =  -164.075998662     A.U. after   12 cycles
 SCF Done:  E(RwB97XD) =  -164.076332424     A.U. after   11 cycles
 SCF Done:  E(RwB97XD) =  -164.076388613     A.U. after   11 cycles
 Optimization completed.
    -- Stationary point found.

                         Standard orientation:
 ---------------------------------------------------------------------
 Center     Atomic      Atomic             Coordinates (Angstroms)
 Number     Number       Type             X           Y           Z
 ---------------------------------------------------------------------
      1          5           0       -0.035850   -1.235186    0.000000
      2          7           0        1.247684    0.302458    0.000000
      3          7           0       -1.219447   -0.273444    0.000000
      4          5           0        0.000000    1.187437    0.000000
      5          1           0       -1.800326   -0.278044    0.826303
      6          1           0       -1.800326   -0.278044   -0.826303
      7          1           0       -0.225218    1.760954    1.030817
      8          1           0       -0.225218    1.760954   -1.030817
      9          1           0        1.824918    0.328623   -0.827437
     10          1           0        1.824918    0.328623    0.827437
     11          1           0        0.191423   -1.793708   -1.034200
     12          1           0        0.191423   -1.793708    1.034200
 ---------------------------------------------------------------------

 The electronic state is 1-A'.
 Alpha  occ. eigenvalues --  -14.44017 -14.42862  -6.85007  -6.83968  -0.98700
 Alpha  occ. eigenvalues --   -0.95296  -0.63262  -0.60536  -0.59311  -0.58005
 Alpha  occ. eigenvalues --   -0.47781  -0.46540  -0.44015  -0.40072  -0.38719
 Alpha  occ. eigenvalues --   -0.34025
 Alpha virt. eigenvalues --    0.09646   0.10738   0.14799   0.15484   0.19143
 Alpha virt. eigenvalues --    0.19846   0.20663   0.21021   0.23667   0.24656
 Alpha virt. eigenvalues --    0.26095   0.26205   0.33265   0.36529   0.39370

 Mulliken charges:
               1
     1  B    0.147026
     2  N   -0.520989
     3  N   -0.492292
     4  B    0.144023
     5  H    0.240986
     6  H    0.240986
     7  H   -0.063707
     8  H   -0.063707
     9  H    0.236552
    10  H    0.236552
    11  H   -0.052715
    12  H   -0.052715
 Sum of Mulliken charges =   0.00000

 Dipole moment (field-independent basis, Debye):
    X=             -0.2146    Y=             -0.2283    Z=              0.0000  Tot=              0.3133
 Quadrupole moment (field-independent basis, Debye-Ang):
   XX=            -19.6863   YY=            -34.9639   ZZ=            -27.0557
   XY=              2.5021   XZ=              0.0000   YZ=              0.0000

 Normal termination of Gaussian 09 at Thu Mar  9 15:02:57 2017.
