 Gaussian 09, Revision D.01,
 Gaussian 09:  AS64L-G09RevD.01 24-Apr-2013

 -----------------------------------------------------------
 #P RwB97XD/6-311G(d,p)int(grid=ultrafine) opt(modred,loose)
 -----------------------------------------------------------

 --------------------
 AB2-mult-scan1_2.gjf
 --------------------
 Symbolic Z-matrix:
 Charge =  0 Multiplicity = 1

 SCF Done:  E(RwB97XD) =  -164.104136920     A.U. after   13 cycles
 Optimization completed.
    -- Stationary point found.
 SCF Done:  E(RwB97XD) =  -164.101842411     A.U. after   12 cycles
 SCF Done:  E(RwB97XD) =  -164.102111274     A.U. after   10 cycles
 SCF Done:  E(RwB97XD) =  -164.102103576     A.U. after   10 cycles
 SCF Done:  E(RwB97XD) =  -164.102181965     A.U. after    8 cycles
 Optimization completed.
    -- Stationary point found.

                         Standard orientation:
 ---------------------------------------------------------------------
 Center     Atomic      Atomic             Coordinates (Angstroms)
 Number     Number       Type             X           Y           Z
 ---------------------------------------------------------------------
      1          5           0        0.000360   -1.142594    0.000000
      2          7           0        1.178644    0.086913    0.000000
      3          7           0       -1.178340   -0.086865    0.000000
      4          5           0        0.000000    1.142589    0.000000
      5          1           0       -1.766316   -0.093088    0.821899
      6          1           0       -1.766316   -0.093088   -0.821899
      7          1           0       -0.068356    1.773099    1.022816
      8          1           0       -0.068356    1.773099   -1.022816
      9          1           0        1.766537    0.092619   -0.822088
     10          1           0        1.766537    0.092619    0.822088
     11          1           0        0.066174   -1.772786   -1.023421
     12          1           0        0.066174   -1.772786    1.023421
 ---------------------------------------------------------------------

 The electronic state is 1-A'.
 Alpha  occ. eigenvalues --  -14.44755 -14.44734  -6.83116  -6.83110  -1.00902
 Alpha  occ. eigenvalues --   -0.96283  -0.65310  -0.61744  -0.59541  -0.58626
 Alpha  occ. eigenvalues --   -0.47779  -0.46477  -0.45798  -0.39173  -0.37819
 Alpha  occ. eigenvalues --   -0.36224
 Alpha virt. eigenvalues --    0.10436   0.11492   0.13903   0.18917   0.19290
 Alpha virt. eigenvalues --    0.20469   0.21063   0.22771   0.23747   0.24549
 Alpha virt. eigenvalues --    0.24562   0.26218   0.33631   0.40401   0.40819

 Mulliken charges:
               1
     1  B    0.080902
     2  N   -0.435257
     3  N   -0.435170
     4  B    0.081066
     5  H    0.242974
     6  H    0.242974
     7  H   -0.065925
     8  H   -0.065925
     9  H    0.243067
    10  H    0.243067
    11  H   -0.065886
    12  H   -0.065886
 Sum of Mulliken charges =   0.00000

 Dipole moment (field-independent basis, Debye):
    X=              0.0036    Y=             -0.0009    Z=              0.0000  Tot=              0.0037
 Quadrupole moment (field-independent basis, Debye-Ang):
   XX=            -18.7365   YY=            -36.5774   ZZ=            -27.2836
   XY=              0.8907   XZ=              0.0000   YZ=              0.0000

 Normal termination of Gaussian 09 at Thu Mar  9 14:54:00 2017.
