 Gaussian 09, Revision D.01,
 Gaussian 09:  AS64L-G09RevD.01 24-Apr-2013

 -----------------------------------------------------------
 #P RwB97XD/6-311G(d,p)int(grid=ultrafine) opt(modred,loose)
 -----------------------------------------------------------

 --------------------
 AB2-mult-scan6_1.gjf
 --------------------
 Symbolic Z-matrix:
 Charge =  0 Multiplicity = 1

 SCF Done:  E(RwB97XD) =  -164.065658021     A.U. after   13 cycles
 Optimization completed.
    -- Stationary point found.
 SCF Done:  E(RwB97XD) =  -164.063320010     A.U. after   13 cycles
 SCF Done:  E(RwB97XD) =  -164.063655480     A.U. after   11 cycles
 SCF Done:  E(RwB97XD) =  -164.063742676     A.U. after   10 cycles
 SCF Done:  E(RwB97XD) =  -164.063768619     A.U. after    9 cycles
 SCF Done:  E(RwB97XD) =  -164.063793962     A.U. after   10 cycles
 Optimization completed.
    -- Stationary point found.

                         Standard orientation:
 ---------------------------------------------------------------------
 Center     Atomic      Atomic             Coordinates (Angstroms)
 Number     Number       Type             X           Y           Z
 ---------------------------------------------------------------------
      1          5           0        0.030186    1.262475    0.000000
      2          7           0       -1.287280   -0.503104    0.000000
      3          7           0        1.263117    0.471369    0.000000
      4          5           0        0.000000   -1.209981    0.000000
      5          1           0        1.825563    0.433258    0.835092
      6          1           0        1.825563    0.433258   -0.835092
      7          1           0        0.370393   -1.683450    1.036207
      8          1           0        0.370393   -1.683450   -1.036207
      9          1           0       -1.849244   -0.493357   -0.835407
     10          1           0       -1.849244   -0.493357    0.835407
     11          1           0       -0.337607    1.723386   -1.039443
     12          1           0       -0.337607    1.723386    1.039443
 ---------------------------------------------------------------------

 The electronic state is 1-A'.
 Alpha  occ. eigenvalues --  -14.42681 -14.41537  -6.85022  -6.84218  -0.97556
 Alpha  occ. eigenvalues --   -0.95075  -0.62565  -0.60139  -0.59610  -0.58092
 Alpha  occ. eigenvalues --   -0.47848  -0.47155  -0.42983  -0.40311  -0.39279
 Alpha  occ. eigenvalues --   -0.32426
 Alpha virt. eigenvalues --    0.08495   0.10957   0.14649   0.15228   0.17687
 Alpha virt. eigenvalues --    0.19349   0.20479   0.20979   0.23701   0.24713
 Alpha virt. eigenvalues --    0.26678   0.27486   0.33622   0.34861   0.39230

 Mulliken charges:
               1
     1  B    0.161930
     2  N   -0.530600
     3  N   -0.514541
     4  B    0.160808
     5  H    0.238389
     6  H    0.238389
     7  H   -0.060046
     8  H   -0.060046
     9  H    0.232676
    10  H    0.232676
    11  H   -0.049818
    12  H   -0.049818
 Sum of Mulliken charges =   0.00000

 Dipole moment (field-independent basis, Debye):
    X=              0.1890    Y=              0.2282    Z=              0.0000  Tot=              0.2963
 Quadrupole moment (field-independent basis, Debye-Ang):
   XX=            -20.5146   YY=            -33.4231   ZZ=            -26.7151
   XY=              2.8582   XZ=              0.0000   YZ=              0.0000

 Normal termination of Gaussian 09 at Thu Mar  9 15:11:55 2017.
