 Gaussian 09, Revision E.01,
 Gaussian 09:  ES64L-G09RevE.01 30-Nov-2015

 -----------------------------------------------------------
 #P RwB97XD/6-311G(d,p)int(grid=ultrafine) opt(modred,loose)
 -----------------------------------------------------------

 --------------------
 AB2-mult-scan3_2.gjf
 --------------------
 Symbolic Z-matrix:
 Charge =  0 Multiplicity = 1

 SCF Done:  E(RwB97XD) =  -164.086744939     A.U. after   14 cycles
 Optimization completed.
    -- Stationary point found.
 SCF Done:  E(RwB97XD) =  -164.081265264     A.U. after   12 cycles
 SCF Done:  E(RwB97XD) =  -164.081605082     A.U. after   11 cycles
 SCF Done:  E(RwB97XD) =  -164.081653261     A.U. after    9 cycles
 Optimization completed.
    -- Stationary point found.

                         Standard orientation:
 ---------------------------------------------------------------------
 Center     Atomic      Atomic             Coordinates (Angstroms)
 Number     Number       Type             X           Y           Z
 ---------------------------------------------------------------------
      1          5           0        0.000697   -1.199903    0.000000
      2          7           0        1.219914    0.261169    0.000000
      3          7           0       -1.220056   -0.260982    0.000000
      4          5           0        0.000000    1.199390    0.000000
      5          1           0       -1.801015   -0.282308    0.825796
      6          1           0       -1.801015   -0.282308   -0.825796
      7          1           0       -0.201688    1.779675    1.030446
      8          1           0       -0.201688    1.779675   -1.030446
      9          1           0        1.801076    0.282544   -0.825679
     10          1           0        1.801076    0.282544    0.825679
     11          1           0        0.200378   -1.779284   -1.031627
     12          1           0        0.200378   -1.779284    1.031627
 ---------------------------------------------------------------------

 The electronic state is 1-A'.
 Alpha  occ. eigenvalues --  -14.43792 -14.43774  -6.84290  -6.84266  -0.98946
 Alpha  occ. eigenvalues --   -0.95567  -0.63571  -0.60641  -0.59290  -0.58207
 Alpha  occ. eigenvalues --   -0.47650  -0.46540  -0.44300  -0.39762  -0.38730
 Alpha  occ. eigenvalues --   -0.34571
 Alpha virt. eigenvalues --    0.10194   0.10687   0.14662   0.16010   0.19080
 Alpha virt. eigenvalues --    0.20089   0.20904   0.21000   0.23690   0.24641
 Alpha virt. eigenvalues --    0.25751   0.26152   0.33292   0.37091   0.39482

 Mulliken charges:
               1
     1  B    0.136578
     2  N   -0.496980
     3  N   -0.497452
     4  B    0.136254
     5  H    0.239980
     6  H    0.239980
     7  H   -0.059670
     8  H   -0.059670
     9  H    0.240025
    10  H    0.240025
    11  H   -0.059535
    12  H   -0.059535
 Sum of Mulliken charges =   0.00000

 Dipole moment (field-independent basis, Debye):
    X=              0.0049    Y=             -0.0019    Z=             -0.0000  Tot=              0.0053
 Quadrupole moment (field-independent basis, Debye-Ang):
   XX=            -19.5229   YY=            -35.3154   ZZ=            -27.1137
   XY=              2.4237   XZ=             -0.0000   YZ=              0.0000

 Normal termination of Gaussian 09 at Thu Mar  9 15:00:46 2017.
