 Gaussian 09, Revision D.01,
 Gaussian 09:  AS64L-G09RevD.01 24-Apr-2013

 -----------------------------------------------------------
 #P RwB97XD/6-311G(d,p)int(grid=ultrafine) opt(modred,loose)
 -----------------------------------------------------------

 --------------------
 AB2-mult-scan8_1.gjf
 --------------------
 Symbolic Z-matrix:
 Charge =  0 Multiplicity = 1

 SCF Done:  E(RwB97XD) =  -164.063752315     A.U. after   13 cycles
 Optimization completed.
    -- Stationary point found.
 SCF Done:  E(RwB97XD) =  -164.064315372     A.U. after   13 cycles
 SCF Done:  E(RwB97XD) =  -164.064534852     A.U. after   11 cycles
 SCF Done:  E(RwB97XD) =  -164.064626405     A.U. after   11 cycles
 SCF Done:  E(RwB97XD) =  -164.064666094     A.U. after    9 cycles
 SCF Done:  E(RwB97XD) =  -164.064726631     A.U. after   11 cycles
 Optimization completed.
    -- Stationary point found.

                         Standard orientation:
 ---------------------------------------------------------------------
 Center     Atomic      Atomic             Coordinates (Angstroms)
 Number     Number       Type             X           Y           Z
 ---------------------------------------------------------------------
      1          5           0        0.024835    1.301197    0.000000
      2          7           0       -1.310623   -0.696480    0.000000
      3          7           0        1.290741    0.659315    0.000000
      4          5           0        0.000000   -1.247927    0.000000
      5          1           0        1.825111    0.524539    0.841389
      6          1           0        1.825111    0.524539   -0.841389
      7          1           0        0.468123   -1.606424    1.040655
      8          1           0        0.468123   -1.606424   -1.040655
      9          1           0       -1.847306   -0.577880   -0.841767
     10          1           0       -1.847306   -0.577880    0.841767
     11          1           0       -0.438429    1.656666   -1.042087
     12          1           0       -0.438429    1.656666    1.042087
 ---------------------------------------------------------------------

 The electronic state is 1-A'.
 Alpha  occ. eigenvalues --  -14.42201 -14.41355  -6.84212  -6.83693  -0.97139
 Alpha  occ. eigenvalues --   -0.95410  -0.62241  -0.60424  -0.60230  -0.58653
 Alpha  occ. eigenvalues --   -0.48001  -0.47616  -0.42066  -0.40324  -0.39653
 Alpha  occ. eigenvalues --   -0.32710
 Alpha virt. eigenvalues --    0.08315   0.11071   0.14373   0.15260   0.15399
 Alpha virt. eigenvalues --    0.19539   0.20553   0.21007   0.23654   0.24475
 Alpha virt. eigenvalues --    0.27226   0.28275   0.33986   0.34368   0.39089

 Mulliken charges:
               1
     1  B    0.139537
     2  N   -0.500523
     3  N   -0.493433
     4  B    0.140554
     5  H    0.236645
     6  H    0.236645
     7  H   -0.059469
     8  H   -0.059469
     9  H    0.231173
    10  H    0.231173
    11  H   -0.051417
    12  H   -0.051417
 Sum of Mulliken charges =   0.00000

 Dipole moment (field-independent basis, Debye):
    X=              0.1236    Y=              0.1936    Z=              0.0000  Tot=              0.2297
 Quadrupole moment (field-independent basis, Debye-Ang):
   XX=            -21.0540   YY=            -33.1087   ZZ=            -26.4728
   XY=              2.0839   XZ=              0.0000   YZ=              0.0000

 Normal termination of Gaussian 09 at Thu Mar  9 15:22:13 2017.
