 Gaussian 09, Revision E.01,
 Gaussian 09:  ES64L-G09RevE.01 30-Nov-2015

 -----------------------------------------------------------
 #P RwB97XD/6-311G(d,p)int(grid=ultrafine) opt(modred,loose)
 -----------------------------------------------------------

 ---------------------
 AB2-mult-scan10_2.gjf
 ---------------------
 Symbolic Z-matrix:
 Charge =  0 Multiplicity = 1

 SCF Done:  E(RwB97XD) =  -164.070258502     A.U. after   14 cycles
 Optimization completed.
    -- Stationary point found.
 SCF Done:  E(RwB97XD) =  -164.071469202     A.U. after   12 cycles
 SCF Done:  E(RwB97XD) =  -164.071661313     A.U. after    9 cycles
 Optimization completed.
    -- Stationary point found.

                         Standard orientation:
 ---------------------------------------------------------------------
 Center     Atomic      Atomic             Coordinates (Angstroms)
 Number     Number       Type             X           Y           Z
 ---------------------------------------------------------------------
      1          5           0       -1.020612   -0.919023    0.000000
      2          7           0        1.527301   -0.386563    0.000000
      3          7           0       -1.527322    0.387085    0.000000
      4          5           0        1.021123    0.916904    0.000000
      5          1           0       -1.738914    0.890925    0.844373
      6          1           0       -1.738914    0.890925   -0.844373
      7          1           0        0.854479    1.480663    1.040761
      8          1           0        0.854479    1.480663   -1.040761
      9          1           0        1.753202   -0.886767   -0.842856
     10          1           0        1.753202   -0.886767    0.842856
     11          1           0       -0.869974   -1.481352   -1.043887
     12          1           0       -0.869974   -1.481352    1.043887
 ---------------------------------------------------------------------

 The electronic state is 1-A.
 Alpha  occ. eigenvalues --  -14.42081 -14.41977  -6.83374  -6.83355  -0.96832
 Alpha  occ. eigenvalues --   -0.95931  -0.61766  -0.60905  -0.60129  -0.59180
 Alpha  occ. eigenvalues --   -0.48076  -0.47646  -0.41118  -0.40099  -0.39910
 Alpha  occ. eigenvalues --   -0.34220
 Alpha virt. eigenvalues --    0.08100   0.10827   0.13670   0.14390   0.15275
 Alpha virt. eigenvalues --    0.19504   0.20560   0.20713   0.23591   0.24305
 Alpha virt. eigenvalues --    0.27503   0.28486   0.34302   0.34745   0.38542

 Mulliken charges:
               1
     1  B    0.116484
     2  N   -0.462114
     3  N   -0.462755
     4  B    0.116098
     5  H    0.230556
     6  H    0.230556
     7  H   -0.057638
     8  H   -0.057638
     9  H    0.230580
    10  H    0.230580
    11  H   -0.057355
    12  H   -0.057355
 Sum of Mulliken charges =  -0.00000

 Dipole moment (field-independent basis, Debye):
    X=              0.0718    Y=              0.0067    Z=              0.0000  Tot=              0.0722
 Quadrupole moment (field-independent basis, Debye-Ang):
   XX=            -25.6152   YY=            -28.7527   ZZ=            -26.4172
   XY=             -6.0926   XZ=              0.0000   YZ=              0.0000

 Normal termination of Gaussian 09 at Thu Mar  9 18:31:52 2017.
