 Gaussian 09, Revision E.01,
 Gaussian 09:  ES64L-G09RevE.01 30-Nov-2015

 -----------------------------------------------------------
 #P RwB97XD/6-311G(d,p)int(grid=ultrafine) opt(modred,loose)
 -----------------------------------------------------------

 --------------------
 AB2-mult-scan7_1.gjf
 --------------------
 Symbolic Z-matrix:
 Charge =  0 Multiplicity = 1

 SCF Done:  E(RwB97XD) =  -164.063125927     A.U. after   13 cycles
 Optimization completed.
    -- Stationary point found.
 SCF Done:  E(RwB97XD) =  -164.062615248     A.U. after   13 cycles
 SCF Done:  E(RwB97XD) =  -164.062887490     A.U. after   11 cycles
 SCF Done:  E(RwB97XD) =  -164.062958809     A.U. after   11 cycles
 SCF Done:  E(RwB97XD) =  -164.062984317     A.U. after   10 cycles
 SCF Done:  E(RwB97XD) =  -164.063023674     A.U. after   10 cycles
 Optimization completed.
    -- Stationary point found.

                         Standard orientation:
 ---------------------------------------------------------------------
 Center     Atomic      Atomic             Coordinates (Angstroms)
 Number     Number       Type             X           Y           Z
 ---------------------------------------------------------------------
      1          5           0        0.027192    1.276027    0.000000
      2          7           0       -1.301595   -0.604903    0.000000
      3          7           0        1.279849    0.570234    0.000000
      4          5           0        0.000000   -1.222803    0.000000
      5          1           0        1.828384    0.482546    0.839180
      6          1           0        1.828384    0.482546   -0.839180
      7          1           0        0.427832   -1.635565    1.038731
      8          1           0        0.427832   -1.635565   -1.038731
      9          1           0       -1.851234   -0.538856   -0.839682
     10          1           0       -1.851234   -0.538856    0.839682
     11          1           0       -0.396851    1.680161   -1.041091
     12          1           0       -0.396851    1.680161    1.041091
 ---------------------------------------------------------------------

 The electronic state is 1-A'.
 Alpha  occ. eigenvalues --  -14.42314 -14.41303  -6.84624  -6.83966  -0.97282
 Alpha  occ. eigenvalues --   -0.95197  -0.62414  -0.60182  -0.60024  -0.58376
 Alpha  occ. eigenvalues --   -0.47966  -0.47390  -0.42509  -0.40330  -0.39487
 Alpha  occ. eigenvalues --   -0.32323
 Alpha virt. eigenvalues --    0.08393   0.11038   0.14465   0.15273   0.16494
 Alpha virt. eigenvalues --    0.19464   0.20532   0.21019   0.23689   0.24611
 Alpha virt. eigenvalues --    0.26988   0.27988   0.34026   0.34270   0.39227

 Mulliken charges:
               1
     1  B    0.152677
     2  N   -0.518611
     3  N   -0.506973
     4  B    0.153087
     5  H    0.237701
     6  H    0.237701
     7  H   -0.059585
     8  H   -0.059585
     9  H    0.232082
    10  H    0.232082
    11  H   -0.050288
    12  H   -0.050288
 Sum of Mulliken charges =  -0.00000

 Dipole moment (field-independent basis, Debye):
    X=              0.1563    Y=              0.2192    Z=             -0.0000  Tot=              0.2692
 Quadrupole moment (field-independent basis, Debye-Ang):
   XX=            -20.8115   YY=            -33.1351   ZZ=            -26.5586
   XY=              2.4627   XZ=              0.0000   YZ=              0.0000

 Normal termination of Gaussian 09 at Thu Mar  9 15:17:11 2017.
