 Gaussian 09, Revision E.01,
 Gaussian 09:  ES64L-G09RevE.01 30-Nov-2015

 -----------------------------------------------------------
 #P RwB97XD/6-311G(d,p)int(grid=ultrafine) opt(modred,loose)
 -----------------------------------------------------------

 --------------------
 AB2-mult-scan7_2.gjf
 --------------------
 Symbolic Z-matrix:
 Charge =  0 Multiplicity = 1

 SCF Done:  E(RwB97XD) =  -164.063023675     A.U. after   14 cycles
 Optimization completed.
    -- Stationary point found.
 SCF Done:  E(RwB97XD) =  -164.063429664     A.U. after   12 cycles
 SCF Done:  E(RwB97XD) =  -164.063687205     A.U. after   11 cycles
 SCF Done:  E(RwB97XD) =  -164.063752318     A.U. after   11 cycles
 Optimization completed.
    -- Stationary point found.

                         Standard orientation:
 ---------------------------------------------------------------------
 Center     Atomic      Atomic             Coordinates (Angstroms)
 Number     Number       Type             X           Y           Z
 ---------------------------------------------------------------------
      1          5           0        0.000000   -1.266811    0.000000
      2          7           0        1.287090    0.642894    0.000000
      3          7           0       -1.286703   -0.641636    0.000000
      4          5           0        0.000604    1.267925    0.000000
      5          1           0       -1.835464   -0.569185    0.840070
      6          1           0       -1.835464   -0.569185   -0.840070
      7          1           0       -0.451345    1.643929    1.040658
      8          1           0       -0.451345    1.643929   -1.040658
      9          1           0        1.834786    0.563855   -0.840137
     10          1           0        1.834786    0.563855    0.840137
     11          1           0        0.449161   -1.645784   -1.041113
     12          1           0        0.449161   -1.645784    1.041113
 ---------------------------------------------------------------------

 The electronic state is 1-A'.
 Alpha  occ. eigenvalues --  -14.41733 -14.41707  -6.84119  -6.84106  -0.97005
 Alpha  occ. eigenvalues --   -0.95385  -0.62211  -0.60135  -0.60012  -0.58543
 Alpha  occ. eigenvalues --   -0.47790  -0.47566  -0.42256  -0.40123  -0.39717
 Alpha  occ. eigenvalues --   -0.32514
 Alpha virt. eigenvalues --    0.08333   0.11058   0.14429   0.15335   0.15948
 Alpha virt. eigenvalues --    0.19457   0.20604   0.20878   0.23720   0.24603
 Alpha virt. eigenvalues --    0.27115   0.28099   0.34154   0.34350   0.39178

 Mulliken charges:
               1
     1  B    0.149626
     2  N   -0.507475
     3  N   -0.507209
     4  B    0.151674
     5  H    0.233606
     6  H    0.233606
     7  H   -0.055535
     8  H   -0.055535
     9  H    0.233829
    10  H    0.233829
    11  H   -0.055207
    12  H   -0.055207
 Sum of Mulliken charges =  -0.00000

 Dipole moment (field-independent basis, Debye):
    X=              0.0018    Y=             -0.0111    Z=              0.0000  Tot=              0.0112
 Quadrupole moment (field-independent basis, Debye-Ang):
   XX=            -20.9297   YY=            -32.9098   ZZ=            -26.5257
   XY=              2.6456   XZ=             -0.0000   YZ=              0.0000

 Normal termination of Gaussian 09 at Thu Mar  9 15:19:17 2017.
