 Gaussian 09, Revision E.01,
 Gaussian 09:  ES64L-G09RevE.01 30-Nov-2015

 -----------------------------------------------------------
 #P RwB97XD/6-311G(d,p)int(grid=ultrafine) opt(modred,loose)
 -----------------------------------------------------------

 --------------------
 AB2-mult-scan3_1.gjf
 --------------------
 Symbolic Z-matrix:
 Charge =  0 Multiplicity = 1

 SCF Done:  E(RwB97XD) =  -164.092574978     A.U. after   13 cycles
 Optimization completed.
    -- Stationary point found.
 SCF Done:  E(RwB97XD) =  -164.086398969     A.U. after   12 cycles
 SCF Done:  E(RwB97XD) =  -164.086706532     A.U. after   10 cycles
 SCF Done:  E(RwB97XD) =  -164.086744936     A.U. after    9 cycles
 Optimization completed.
    -- Stationary point found.

                         Standard orientation:
 ---------------------------------------------------------------------
 Center     Atomic      Atomic             Coordinates (Angstroms)
 Number     Number       Type             X           Y           Z
 ---------------------------------------------------------------------
      1          5           0       -0.037581   -1.209550    0.000000
      2          7           0        1.227645    0.211866    0.000000
      3          7           0       -1.198071   -0.183407    0.000000
      4          5           0        0.000000    1.163909    0.000000
      5          1           0       -1.783562   -0.184544    0.823693
      6          1           0       -1.783562   -0.184544   -0.823693
      7          1           0       -0.155445    1.770004    1.027148
      8          1           0       -0.155445    1.770004   -1.027148
      9          1           0        1.809051    0.229138   -0.825391
     10          1           0        1.809051    0.229138    0.825391
     11          1           0        0.120398   -1.800099   -1.031228
     12          1           0        0.120398   -1.800099    1.031228
 ---------------------------------------------------------------------

 The electronic state is 1-A'.
 Alpha  occ. eigenvalues --  -14.44615 -14.43566  -6.84575  -6.83471  -0.99532
 Alpha  occ. eigenvalues --   -0.95594  -0.63972  -0.60998  -0.59363  -0.58196
 Alpha  occ. eigenvalues --   -0.47838  -0.46328  -0.44630  -0.39818  -0.38336
 Alpha  occ. eigenvalues --   -0.35001
 Alpha virt. eigenvalues --    0.10509   0.10631   0.14462   0.16487   0.19061
 Alpha virt. eigenvalues --    0.20256   0.20985   0.21633   0.23672   0.24569
 Alpha virt. eigenvalues --    0.25427   0.26136   0.33350   0.37677   0.39857

 Mulliken charges:
               1
     1  B    0.126615
     2  N   -0.501397
     3  N   -0.464930
     4  B    0.120101
     5  H    0.242709
     6  H    0.242709
     7  H   -0.066513
     8  H   -0.066513
     9  H    0.239249
    10  H    0.239249
    11  H   -0.055639
    12  H   -0.055639
 Sum of Mulliken charges =  -0.00000

 Dipole moment (field-independent basis, Debye):
    X=             -0.2055    Y=             -0.2127    Z=              0.0000  Tot=              0.2958
 Quadrupole moment (field-independent basis, Debye-Ang):
   XX=            -19.2417   YY=            -35.7588   ZZ=            -27.1700
   XY=              1.8330   XZ=              0.0000   YZ=             -0.0000

 Normal termination of Gaussian 09 at Thu Mar  9 14:58:48 2017.
