 Gaussian 09, Revision D.01,
 Gaussian 09:  AS64L-G09RevD.01 24-Apr-2013

 -----------------------------------------------------------
 #P RwB97XD/6-311G(d,p)int(grid=ultrafine) opt(modred,loose)
 -----------------------------------------------------------

 --------------------
 AB2-mult-scan9_2.gjf
 --------------------
 Symbolic Z-matrix:
 Charge =  0 Multiplicity = 1

 SCF Done:  E(RwB97XD) =  -164.067464226     A.U. after   14 cycles
 Optimization completed.
    -- Stationary point found.
 SCF Done:  E(RwB97XD) =  -164.068831444     A.U. after   13 cycles
 SCF Done:  E(RwB97XD) =  -164.069024121     A.U. after    9 cycles
 Optimization completed.
    -- Stationary point found.

                         Standard orientation:
 ---------------------------------------------------------------------
 Center     Atomic      Atomic             Coordinates (Angstroms)
 Number     Number       Type             X           Y           Z
 ---------------------------------------------------------------------
      1          5           0       -0.952111   -0.930473    0.000000
      2          7           0        1.487316   -0.370148    0.000000
      3          7           0       -1.487227    0.370693    0.000000
      4          5           0        0.952790    0.928417    0.000000
      5          1           0       -1.731233    0.859570    0.844283
      6          1           0       -1.731233    0.859570   -0.844283
      7          1           0        0.799937    1.496306    1.040489
      8          1           0        0.799937    1.496306   -1.040489
      9          1           0        1.740289   -0.857083   -0.842747
     10          1           0        1.740289   -0.857083    0.842747
     11          1           0       -0.811003   -1.495558   -1.043442
     12          1           0       -0.811003   -1.495558    1.043442
 ---------------------------------------------------------------------

 The electronic state is 1-A.
 Alpha  occ. eigenvalues --  -14.41951 -14.41871  -6.83553  -6.83553  -0.96887
 Alpha  occ. eigenvalues --   -0.95781  -0.61896  -0.60786  -0.60159  -0.59039
 Alpha  occ. eigenvalues --   -0.48034  -0.47705  -0.41455  -0.40157  -0.39892
 Alpha  occ. eigenvalues --   -0.33623
 Alpha virt. eigenvalues --    0.08179   0.10970   0.14156   0.14367   0.15261
 Alpha virt. eigenvalues --    0.19550   0.20615   0.20808   0.23619   0.24331
 Alpha virt. eigenvalues --    0.27437   0.28458   0.34100   0.34664   0.38760

 Mulliken charges:
               1
     1  B    0.124381
     2  N   -0.474354
     3  N   -0.475149
     4  B    0.123978
     5  H    0.231931
     6  H    0.231931
     7  H   -0.056780
     8  H   -0.056780
     9  H    0.231914
    10  H    0.231914
    11  H   -0.056492
    12  H   -0.056492
 Sum of Mulliken charges =   0.00000

 Dipole moment (field-independent basis, Debye):
    X=              0.0477    Y=              0.0003    Z=              0.0000  Tot=              0.0477
 Quadrupole moment (field-independent basis, Debye-Ang):
   XX=            -25.2810   YY=            -29.1047   ZZ=            -26.4200
   XY=             -5.9423   XZ=              0.0000   YZ=              0.0000

 Normal termination of Gaussian 09 at Thu Mar  9 15:29:39 2017.
