 Gaussian 09, Revision E.01,
 Gaussian 09:  ES64L-G09RevE.01 30-Nov-2015

 --------------------------------------------------------
 #P wb97xd/6-311G** int(grid=ultrafine) opt(modred,loose)
 --------------------------------------------------------

 ----------
 AB-AB-scan
 ----------
 Symbolic Z-matrix:
 Charge =  0 Multiplicity = 1

 SCF Done:  E(RwB97XD) =  -164.106550087     A.U. after   12 cycles

 The electronic state is 1-AG.
 Alpha  occ. eigenvalues --  -14.44880 -14.44879  -6.82461  -6.82457  -1.02070
 Alpha  occ. eigenvalues --   -0.96769  -0.66346  -0.62348  -0.59873  -0.58839
 Alpha  occ. eigenvalues --   -0.47802  -0.46963  -0.46721  -0.38832  -0.37295
 Alpha  occ. eigenvalues --   -0.36499
 Alpha virt. eigenvalues --    0.10338   0.11813   0.13471   0.18817   0.20521
 Alpha virt. eigenvalues --    0.20806   0.21027   0.23371   0.23811   0.24572
 Alpha virt. eigenvalues --    0.24678   0.26395   0.33878   0.41849   0.42078

 Mulliken charges:
               1
     1  B    0.047118
     2  N   -0.394470
     3  N   -0.394470
     4  B    0.047118
     5  H    0.242866
     6  H    0.242866
     7  H   -0.069190
     8  H   -0.069190
     9  H    0.242866
    10  H    0.242866
    11  H   -0.069190
    12  H   -0.069190
 Sum of Mulliken charges =   0.00000

 Dipole moment (field-independent basis, Debye):
    X=             -0.0000    Y=              0.0000    Z=             -0.0000  Tot=              0.0000
 Quadrupole moment (field-independent basis, Debye-Ang):
   XX=            -18.4842   YY=            -36.8791   ZZ=            -27.3326
   XY=             -0.0000   XZ=              0.0000   YZ=              0.0000

 Optimization completed.
    -- Stationary point found.

                         Standard orientation:
 ---------------------------------------------------------------------
 Center     Atomic      Atomic             Coordinates (Angstroms)
 Number     Number       Type             X           Y           Z
 ---------------------------------------------------------------------
      1          5           0        0.000000    1.111532    0.000000
      2          7           0       -1.154966    0.000000    0.000000
      3          7           0        1.154966   -0.000000    0.000000
      4          5           0       -0.000000   -1.111532    0.000000
      5          1           0        1.746262   -0.000000    0.819769
      6          1           0        1.746262   -0.000000   -0.819769
      7          1           0        0.000000   -1.756965    1.018609
      8          1           0        0.000000   -1.756965   -1.018609
      9          1           0       -1.746262   -0.000000   -0.819769
     10          1           0       -1.746262    0.000000    0.819769
     11          1           0        0.000000    1.756965   -1.018609
     12          1           0        0.000000    1.756965    1.018609
 ---------------------------------------------------------------------

 Normal termination of Gaussian 09 at Thu Mar  9 14:50:27 2017.
