 Gaussian 09, Revision E.01,
 Gaussian 09:  ES64L-G09RevE.01 30-Nov-2015

 -----------------------------------------------------------
 #P RwB97XD/6-311G(d,p)int(grid=ultrafine) opt(modred,loose)
 -----------------------------------------------------------

 --------------------
 AB2-mult-scan8_2.gjf
 --------------------
 Symbolic Z-matrix:
 Charge =  0 Multiplicity = 1

 SCF Done:  E(RwB97XD) =  -164.064726631     A.U. after   14 cycles
 Optimization completed.
    -- Stationary point found.
 SCF Done:  E(RwB97XD) =  -164.065968178     A.U. after   12 cycles
 SCF Done:  E(RwB97XD) =  -164.066139575     A.U. after   11 cycles
 SCF Done:  E(RwB97XD) =  -164.066177335     A.U. after    9 cycles
 Optimization completed.
    -- Stationary point found.

                         Standard orientation:
 ---------------------------------------------------------------------
 Center     Atomic      Atomic             Coordinates (Angstroms)
 Number     Number       Type             X           Y           Z
 ---------------------------------------------------------------------
      1          5           0        0.000000   -1.293902    0.000000
      2          7           0        1.296980    0.728969    0.000000
      3          7           0       -1.296501   -0.727442    0.000000
      4          5           0        0.000519    1.295406    0.000000
      5          1           0       -1.833782   -0.609056    0.841823
      6          1           0       -1.833782   -0.609056   -0.841823
      7          1           0       -0.482813    1.625459    1.041982
      8          1           0       -0.482813    1.625459   -1.041982
      9          1           0        1.831188    0.599179   -0.842020
     10          1           0        1.831188    0.599179    0.842020
     11          1           0        0.482434   -1.624686   -1.042346
     12          1           0        0.482434   -1.624686    1.042346
 ---------------------------------------------------------------------

 The electronic state is 1-A'.
 Alpha  occ. eigenvalues --  -14.41773 -14.41772  -6.83798  -6.83771  -0.96926
 Alpha  occ. eigenvalues --   -0.95592  -0.62071  -0.60518  -0.60094  -0.58807
 Alpha  occ. eigenvalues --   -0.47796  -0.47779  -0.41837  -0.40143  -0.39826
 Alpha  occ. eigenvalues --   -0.33000
 Alpha virt. eigenvalues --    0.08289   0.11051   0.14367   0.14951   0.15302
 Alpha virt. eigenvalues --    0.19516   0.20610   0.20870   0.23675   0.24466
 Alpha virt. eigenvalues --    0.27315   0.28327   0.34119   0.34463   0.39008

 Mulliken charges:
               1
     1  B    0.135514
     2  N   -0.490642
     3  N   -0.490422
     4  B    0.137943
     5  H    0.232737
     6  H    0.232737
     7  H   -0.056150
     8  H   -0.056150
     9  H    0.232929
    10  H    0.232929
    11  H   -0.055712
    12  H   -0.055712
 Sum of Mulliken charges =  -0.00000

 Dipole moment (field-independent basis, Debye):
    X=             -0.0090    Y=             -0.0302    Z=             -0.0000  Tot=              0.0315
 Quadrupole moment (field-independent basis, Debye-Ang):
   XX=            -21.1046   YY=            -32.9708   ZZ=            -26.4569
   XY=              2.2880   XZ=             -0.0000   YZ=             -0.0000

 Normal termination of Gaussian 09 at Thu Mar  9 15:24:25 2017.
