 Gaussian 09, Revision E.01,
 Gaussian 09:  ES64L-G09RevE.01 30-Nov-2015

 -----------------------------------------------------------
 #P RwB97XD/6-311G(d,p)int(grid=ultrafine) opt(modred,loose)
 -----------------------------------------------------------

 --------------------
 AB2-mult-scan5_1.gjf
 --------------------
 Symbolic Z-matrix:
 Charge =  0 Multiplicity = 1

 SCF Done:  E(RwB97XD) =  -164.072075111     A.U. after   14 cycles
 Optimization completed.
    -- Stationary point found.
 SCF Done:  E(RwB97XD) =  -164.067801698     A.U. after   13 cycles
 SCF Done:  E(RwB97XD) =  -164.068171626     A.U. after   11 cycles
 SCF Done:  E(RwB97XD) =  -164.068266029     A.U. after   11 cycles
 Optimization completed.
    -- Stationary point found.

                         Standard orientation:
 ---------------------------------------------------------------------
 Center     Atomic      Atomic             Coordinates (Angstroms)
 Number     Number       Type             X           Y           Z
 ---------------------------------------------------------------------
      1          5           0       -0.033859   -1.256253    0.000000
      2          7           0        1.265617    0.397155    0.000000
      3          7           0       -1.238974   -0.367440    0.000000
      4          5           0        0.000000    1.206332    0.000000
      5          1           0       -1.814053   -0.368343    0.829426
      6          1           0       -1.814053   -0.368343   -0.829426
      7          1           0       -0.296297    1.736956    1.033959
      8          1           0       -0.296297    1.736956   -1.033959
      9          1           0        1.837385    0.424473   -0.830236
     10          1           0        1.837385    0.424473    0.830236
     11          1           0        0.264362   -1.772287   -1.036633
     12          1           0        0.264362   -1.772287    1.036633
 ---------------------------------------------------------------------

 The electronic state is 1-A'.
 Alpha  occ. eigenvalues --  -14.43323 -14.42109  -6.85193  -6.84255  -0.98025
 Alpha  occ. eigenvalues --   -0.95091  -0.62749  -0.60191  -0.59346  -0.57901
 Alpha  occ. eigenvalues --   -0.47756  -0.46833  -0.43462  -0.40243  -0.39029
 Alpha  occ. eigenvalues --   -0.33137
 Alpha virt. eigenvalues --    0.08819   0.10858   0.14966   0.15077   0.18846
 Alpha virt. eigenvalues --    0.19229   0.20447   0.20925   0.23683   0.24732
 Alpha virt. eigenvalues --    0.26387   0.26765   0.33313   0.35747   0.39180

 Mulliken charges:
               1
     1  B    0.160501
     2  N   -0.531783
     3  N   -0.509614
     4  B    0.159447
     5  H    0.238982
     6  H    0.238982
     7  H   -0.061444
     8  H   -0.061444
     9  H    0.233730
    10  H    0.233730
    11  H   -0.050543
    12  H   -0.050543
 Sum of Mulliken charges =  -0.00000

 Dipole moment (field-independent basis, Debye):
    X=             -0.2164    Y=             -0.2364    Z=              0.0000  Tot=              0.3205
 Quadrupole moment (field-independent basis, Debye-Ang):
   XX=            -20.1461   YY=            -34.0852   ZZ=            -26.9145
   XY=              2.9583   XZ=              0.0000   YZ=             -0.0000

 Normal termination of Gaussian 09 at Thu Mar  9 09:06:04 2017.
