 Gaussian 09, Revision E.01,
 Gaussian 09:  ES64L-G09RevE.01 30-Nov-2015

 -----------------------------------------------------------
 #P RwB97XD/6-311G(d,p)int(grid=ultrafine) opt(modred,loose)
 -----------------------------------------------------------

 --------------------
 AB2-mult-scan4_2.gjf
 --------------------
 Symbolic Z-matrix:
 Charge =  0 Multiplicity = 1

 SCF Done:  E(RwB97XD) =  -164.076388634     A.U. after   14 cycles
 Optimization completed.
    -- Stationary point found.
 SCF Done:  E(RwB97XD) =  -164.071617743     A.U. after   12 cycles
 SCF Done:  E(RwB97XD) =  -164.071996081     A.U. after   11 cycles
 SCF Done:  E(RwB97XD) =  -164.072075129     A.U. after   11 cycles
 Optimization completed.
    -- Stationary point found.

                         Standard orientation:
 ---------------------------------------------------------------------
 Center     Atomic      Atomic             Coordinates (Angstroms)
 Number     Number       Type             X           Y           Z
 ---------------------------------------------------------------------
      1          5           0        0.000758   -1.222046    0.000000
      2          7           0        1.238730    0.352513    0.000000
      3          7           0       -1.238773   -0.352242    0.000000
      4          5           0        0.000000    1.221688    0.000000
      5          1           0       -1.814629   -0.376089    0.828480
      6          1           0       -1.814629   -0.376089   -0.828480
      7          1           0       -0.271700    1.763076    1.033574
      8          1           0       -0.271700    1.763076   -1.033574
      9          1           0        1.815147    0.376795   -0.828178
     10          1           0        1.815147    0.376795    0.828178
     11          1           0        0.269439   -1.763837   -1.034546
     12          1           0        0.269439   -1.763837    1.034546
 ---------------------------------------------------------------------

 The electronic state is 1-A'.
 Alpha  occ. eigenvalues --  -14.43089 -14.43062  -6.84651  -6.84628  -0.98175
 Alpha  occ. eigenvalues --   -0.95329  -0.62950  -0.60213  -0.59298  -0.58067
 Alpha  occ. eigenvalues --   -0.47537  -0.46891  -0.43700  -0.39966  -0.39090
 Alpha  occ. eigenvalues --   -0.33608
 Alpha virt. eigenvalues --    0.09307   0.10812   0.14971   0.15216   0.19164
 Alpha virt. eigenvalues --    0.19240   0.20615   0.20823   0.23696   0.24715
 Alpha virt. eigenvalues --    0.26281   0.26441   0.33267   0.36093   0.39221

 Mulliken charges:
               1
     1  B    0.155027
     2  N   -0.515827
     3  N   -0.516282
     4  B    0.154777
     5  H    0.237584
     6  H    0.237584
     7  H   -0.057063
     8  H   -0.057063
     9  H    0.237596
    10  H    0.237596
    11  H   -0.056964
    12  H   -0.056964
 Sum of Mulliken charges =  -0.00000

 Dipole moment (field-independent basis, Debye):
    X=              0.0070    Y=              0.0015    Z=             -0.0000  Tot=              0.0072
 Quadrupole moment (field-independent basis, Debye-Ang):
   XX=            -19.9956   YY=            -34.4472   ZZ=            -26.9848
   XY=              2.9633   XZ=             -0.0000   YZ=              0.0000

 Normal termination of Gaussian 09 at Thu Mar  9 15:05:08 2017.
