 Gaussian 09, Revision E.01,
 Gaussian 09:  ES64L-G09RevE.01 30-Nov-2015

 -----------------------------------------------------------
 #P RwB97XD/6-311G(d,p)int(grid=ultrafine) opt(modred,loose)
 -----------------------------------------------------------

 --------------------
 AB2-mult-scan2_2.gjf
 --------------------
 Symbolic Z-matrix:
 Charge =  0 Multiplicity = 1

 SCF Done:  E(RwB97XD) =  -164.097097860     A.U. after   13 cycles
 Optimization completed.
    -- Stationary point found.
 SCF Done:  E(RwB97XD) =  -164.092221944     A.U. after   12 cycles
 SCF Done:  E(RwB97XD) =  -164.092538948     A.U. after   10 cycles
 SCF Done:  E(RwB97XD) =  -164.092575012     A.U. after    8 cycles
 Optimization completed.
    -- Stationary point found.

                         Standard orientation:
 ---------------------------------------------------------------------
 Center     Atomic      Atomic             Coordinates (Angstroms)
 Number     Number       Type             X           Y           Z
 ---------------------------------------------------------------------
      1          5           0        0.000636   -1.173379    0.000000
      2          7           0        1.199596    0.173145    0.000000
      3          7           0       -1.199819   -0.172984    0.000000
      4          5           0        0.000000    1.172775    0.000000
      5          1           0       -1.784764   -0.187275    0.823650
      6          1           0       -1.784764   -0.187275   -0.823650
      7          1           0       -0.133576    1.782400    1.026751
      8          1           0       -0.133576    1.782400   -1.026751
      9          1           0        1.784595    0.187313   -0.823609
     10          1           0        1.784595    0.187313    0.823609
     11          1           0        0.132933   -1.781490   -1.028029
     12          1           0        0.132933   -1.781490    1.028029
 ---------------------------------------------------------------------

 The electronic state is 1-A'.
 Alpha  occ. eigenvalues --  -14.44371 -14.44358  -6.83752  -6.83728  -0.99861
 Alpha  occ. eigenvalues --   -0.95887  -0.64369  -0.61161  -0.59365  -0.58403
 Alpha  occ. eigenvalues --   -0.47735  -0.46355  -0.44994  -0.39490  -0.38301
 Alpha  occ. eigenvalues --   -0.35522
 Alpha virt. eigenvalues --    0.10559   0.10968   0.14303   0.17411   0.19001
 Alpha virt. eigenvalues --    0.20368   0.20998   0.21894   0.23706   0.24582
 Alpha virt. eigenvalues --    0.25075   0.26134   0.33425   0.38556   0.40000

 Mulliken charges:
               1
     1  B    0.111504
     2  N   -0.469594
     3  N   -0.470108
     4  B    0.111150
     5  H    0.241911
     6  H    0.241911
     7  H   -0.062749
     8  H   -0.062749
     9  H    0.241959
    10  H    0.241959
    11  H   -0.062597
    12  H   -0.062597
 Sum of Mulliken charges =  -0.00000

 Dipole moment (field-independent basis, Debye):
    X=              0.0036    Y=             -0.0034    Z=              0.0000  Tot=              0.0050
 Quadrupole moment (field-independent basis, Debye-Ang):
   XX=            -19.0893   YY=            -36.0484   ZZ=            -27.2151
   XY=              1.7136   XZ=              0.0000   YZ=             -0.0000

 Normal termination of Gaussian 09 at Thu Mar  9 14:56:41 2017.
