 Gaussian 09, Revision D.01,
 Gaussian 09:  AS64L-G09RevD.01 24-Apr-2013

 -----------------------------------------------------------
 #P RwB97XD/6-311G(d,p)int(grid=ultrafine) opt(modred,loose)
 -----------------------------------------------------------

 ---------------------
 AB2-mult-scan10_1.gjf
 ---------------------
 Symbolic Z-matrix:
 Charge =  0 Multiplicity = 1

 SCF Done:  E(RwB97XD) =  -164.069010386     A.U. after   13 cycles
 Optimization completed.
    -- Stationary point found.
 SCF Done:  E(RwB97XD) =  -164.069968929     A.U. after   12 cycles
 SCF Done:  E(RwB97XD) =  -164.070213468     A.U. after    9 cycles
 SCF Done:  E(RwB97XD) =  -164.070243065     A.U. after    9 cycles
 SCF Done:  E(RwB97XD) =  -164.070258510     A.U. after    8 cycles
 Optimization completed.
    -- Stationary point found.

                         Standard orientation:
 ---------------------------------------------------------------------
 Center     Atomic      Atomic             Coordinates (Angstroms)
 Number     Number       Type             X           Y           Z
 ---------------------------------------------------------------------
      1          5           0       -0.021288   -1.380061    0.000000
      2          7           0        1.319586    0.850952    0.000000
      3          7           0       -1.302794   -0.811541    0.000000
      4          5           0        0.000000    1.325618    0.000000
      5          1           0       -1.822763   -0.634200    0.842522
      6          1           0       -1.822763   -0.634200   -0.842522
      7          1           0       -0.515129    1.602537    1.042918
      8          1           0       -0.515129    1.602537   -1.042918
      9          1           0        1.845503    0.695140   -0.842776
     10          1           0        1.845503    0.695140    0.842776
     11          1           0        0.486836   -1.665308   -1.043251
     12          1           0        0.486836   -1.665308    1.043251
 ---------------------------------------------------------------------

 The electronic state is 1-A'.
 Alpha  occ. eigenvalues --  -14.42210 -14.41698  -6.83612  -6.83289  -0.96914
 Alpha  occ. eigenvalues --   -0.95798  -0.61872  -0.60833  -0.60152  -0.59035
 Alpha  occ. eigenvalues --   -0.48032  -0.47664  -0.41299  -0.40208  -0.39816
 Alpha  occ. eigenvalues --   -0.33897
 Alpha virt. eigenvalues --    0.08094   0.10935   0.13962   0.14381   0.15283
 Alpha virt. eigenvalues --    0.19509   0.20474   0.20842   0.23602   0.24344
 Alpha virt. eigenvalues --    0.27462   0.28442   0.34246   0.34682   0.38635

 Mulliken charges:
               1
     1  B    0.120683
     2  N   -0.469880
     3  N   -0.467270
     4  B    0.120804
     5  H    0.233226
     6  H    0.233226
     7  H   -0.059825
     8  H   -0.059825
     9  H    0.228757
    10  H    0.228757
    11  H   -0.054326
    12  H   -0.054326
 Sum of Mulliken charges =   0.00000

 Dipole moment (field-independent basis, Debye):
    X=             -0.0544    Y=             -0.0938    Z=              0.0000  Tot=              0.1084
 Quadrupole moment (field-independent basis, Debye-Ang):
   XX=            -21.2080   YY=            -33.0879   ZZ=            -26.4295
   XY=              2.1154   XZ=              0.0000   YZ=              0.0000

 Normal termination of Gaussian 09 at Thu Mar  9 18:29:47 2017.
