 Gaussian 09, Revision E.01,
 Gaussian 09:  ES64L-G09RevE.01 30-Nov-2015

 -----------------------------------------------------------
 #P RwB97XD/6-311G(d,p)int(grid=ultrafine) opt(modred,loose)
 -----------------------------------------------------------

 --------------------
 AB2-mult-scan1_1.gjf
 --------------------
 Symbolic Z-matrix:
 Charge =  0 Multiplicity = 1

 SCF Done:  E(RwB97XD) =  -164.106550087     A.U. after   12 cycles
 Optimization completed.
    -- Stationary point found.
 SCF Done:  E(RwB97XD) =  -164.103788429     A.U. after   12 cycles
 SCF Done:  E(RwB97XD) =  -164.104103502     A.U. after   10 cycles
 SCF Done:  E(RwB97XD) =  -164.104136909     A.U. after    8 cycles
 Optimization completed.
    -- Stationary point found.

                         Standard orientation:
 ---------------------------------------------------------------------
 Center     Atomic      Atomic             Coordinates (Angstroms)
 Number     Number       Type             X           Y           Z
 ---------------------------------------------------------------------
      1          5           0        0.040778    1.148102    0.000000
      2          7           0       -1.182848   -0.036287    0.000000
      3          7           0        1.150689    0.008992    0.000000
      4          5           0        0.000000   -1.106968    0.000000
      5          1           0        1.743510    0.000315    0.819086
      6          1           0        1.743510    0.000315   -0.819086
      7          1           0        0.020096   -1.754566    1.017980
      8          1           0        0.020096   -1.754566   -1.017980
      9          1           0       -1.769648   -0.032059   -0.822355
     10          1           0       -1.769648   -0.032059    0.822355
     11          1           0        0.016655    1.779008   -1.023469
     12          1           0        0.016655    1.779008    1.023469
 ---------------------------------------------------------------------

 The electronic state is 1-A'.
 Alpha  occ. eigenvalues --  -14.45193 -14.44463  -6.83370  -6.82193  -1.01604
 Alpha  occ. eigenvalues --   -0.96405  -0.65837  -0.62119  -0.59761  -0.58654
 Alpha  occ. eigenvalues --   -0.47932  -0.46861  -0.45904  -0.39166  -0.37404
 Alpha  occ. eigenvalues --   -0.36385
 Alpha virt. eigenvalues --    0.10375   0.11636   0.13668   0.18893   0.19908
 Alpha virt. eigenvalues --    0.20456   0.21094   0.23200   0.23752   0.24281
 Alpha virt. eigenvalues --    0.24842   0.26310   0.33749   0.40507   0.42106

 Mulliken charges:
               1
     1  B    0.071758
     2  N   -0.440285
     3  N   -0.388361
     4  B    0.055029
     5  H    0.243755
     6  H    0.243755
     7  H   -0.072662
     8  H   -0.072662
     9  H    0.242200
    10  H    0.242200
    11  H   -0.062363
    12  H   -0.062363
 Sum of Mulliken charges =  -0.00000

 Dipole moment (field-independent basis, Debye):
    X=              0.1794    Y=              0.1747    Z=              0.0000  Tot=              0.2504
 Quadrupole moment (field-independent basis, Debye-Ang):
   XX=            -18.5976   YY=            -36.7563   ZZ=            -27.3107
   XY=              0.1454   XZ=              0.0000   YZ=             -0.0000

 Normal termination of Gaussian 09 at Thu Mar  9 08:51:27 2017.
