 Gaussian 09, Revision E.01,
 Gaussian 09:  ES64L-G09RevE.01 30-Nov-2015

 -----------------------------------------------------------
 #P RwB97XD/6-311G(d,p)int(grid=ultrafine) opt(modred,loose)
 -----------------------------------------------------------

 --------------------
 AB2-mult-scan5_2.gjf
 --------------------
 Symbolic Z-matrix:
 Charge =  0 Multiplicity = 1

 SCF Done:  E(RwB97XD) =  -164.068266064     A.U. after   14 cycles
 Optimization completed.
    -- Stationary point found.
 SCF Done:  E(RwB97XD) =  -164.065039920     A.U. after   12 cycles
 SCF Done:  E(RwB97XD) =  -164.065458363     A.U. after   12 cycles
 SCF Done:  E(RwB97XD) =  -164.065595588     A.U. after   11 cycles
 SCF Done:  E(RwB97XD) =  -164.065633503     A.U. after   10 cycles
 SCF Done:  E(RwB97XD) =  -164.065658008     A.U. after   10 cycles
 Optimization completed.
    -- Stationary point found.

                         Standard orientation:
 ---------------------------------------------------------------------
 Center     Atomic      Atomic             Coordinates (Angstroms)
 Number     Number       Type             X           Y           Z
 ---------------------------------------------------------------------
      1          5           0        0.000000   -1.230049    0.000000
      2          7           0        1.261244    0.452705    0.000000
      3          7           0       -1.261265   -0.452628    0.000000
      4          5           0       -0.000197    1.230259    0.000000
      5          1           0       -1.828445   -0.452659    0.833087
      6          1           0       -1.828445   -0.452659   -0.833087
      7          1           0       -0.342182    1.720515    1.037004
      8          1           0       -0.342182    1.720515   -1.037004
      9          1           0        1.828551    0.452587   -0.833019
     10          1           0        1.828551    0.452587    0.833019
     11          1           0        0.342645   -1.721239   -1.036428
     12          1           0        0.342645   -1.721239    1.036428
 ---------------------------------------------------------------------

 The electronic state is 1-A'.
 Alpha  occ. eigenvalues --  -14.42383 -14.42381  -6.84704  -6.84699  -0.97602
 Alpha  occ. eigenvalues --   -0.95239  -0.62646  -0.60039  -0.59475  -0.58151
 Alpha  occ. eigenvalues --   -0.47412  -0.47398  -0.43209  -0.40063  -0.39383
 Alpha  occ. eigenvalues --   -0.32724
 Alpha virt. eigenvalues --    0.08767   0.10914   0.14779   0.15177   0.18139
 Alpha virt. eigenvalues --    0.19274   0.20594   0.20836   0.23716   0.24736
 Alpha virt. eigenvalues --    0.26527   0.27189   0.33464   0.35166   0.39228

 Mulliken charges:
               1
     1  B    0.162031
     2  N   -0.523943
     3  N   -0.523848
     4  B    0.162283
     5  H    0.236188
     6  H    0.236188
     7  H   -0.055286
     8  H   -0.055286
     9  H    0.236156
    10  H    0.236156
    11  H   -0.055319
    12  H   -0.055319
 Sum of Mulliken charges =  -0.00000

 Dipole moment (field-independent basis, Debye):
    X=             -0.0008    Y=              0.0014    Z=              0.0000  Tot=              0.0016
 Quadrupole moment (field-independent basis, Debye-Ang):
   XX=            -20.4018   YY=            -33.6588   ZZ=            -26.7998
   XY=              3.0694   XZ=              0.0000   YZ=             -0.0000

 Normal termination of Gaussian 09 at Thu Mar  9 15:09:06 2017.
