 Gaussian 09, Revision E.01,
 Gaussian 09:  ES64L-G09RevE.01 30-Nov-2015

 -----------------------------------------------------------
 #P RwB97XD/6-311G(d,p)int(grid=ultrafine) opt(modred,loose)
 -----------------------------------------------------------

 --------------------
 AB2-mult-scan9_1.gjf
 --------------------
 Symbolic Z-matrix:
 Charge =  0 Multiplicity = 1

 SCF Done:  E(RwB97XD) =  -164.066177344     A.U. after   12 cycles
 Optimization completed.
    -- Stationary point found.
 SCF Done:  E(RwB97XD) =  -164.067245304     A.U. after   13 cycles
 SCF Done:  E(RwB97XD) =  -164.067379165     A.U. after   11 cycles
 SCF Done:  E(RwB97XD) =  -164.067420529     A.U. after    9 cycles
 SCF Done:  E(RwB97XD) =  -164.067438033     A.U. after    9 cycles
 SCF Done:  E(RwB97XD) =  -164.067464234     A.U. after    9 cycles
 Optimization completed.
    -- Stationary point found.

                         Standard orientation:
 ---------------------------------------------------------------------
 Center     Atomic      Atomic             Coordinates (Angstroms)
 Number     Number       Type             X           Y           Z
 ---------------------------------------------------------------------
      1          5           0        0.023136    1.337710    0.000000
      2          7           0       -1.315724   -0.777049    0.000000
      3          7           0        1.297101    0.738289    0.000000
      4          5           0        0.000000   -1.284507    0.000000
      5          1           0        1.820809    0.571505    0.842244
      6          1           0        1.820809    0.571505   -0.842244
      7          1           0        0.495862   -1.598415    1.041857
      8          1           0        0.495862   -1.598415   -1.041857
      9          1           0       -1.842669   -0.624652   -0.842520
     10          1           0       -1.842669   -0.624652    0.842520
     11          1           0       -0.466661    1.654216   -1.042774
     12          1           0       -0.466661    1.654216    1.042774
 ---------------------------------------------------------------------

 The electronic state is 1-A'.
 Alpha  occ. eigenvalues --  -14.42198 -14.41515  -6.83879  -6.83480  -0.97037
 Alpha  occ. eigenvalues --   -0.95621  -0.62047  -0.60705  -0.60224  -0.58870
 Alpha  occ. eigenvalues --   -0.48048  -0.47694  -0.41669  -0.40293  -0.39766
 Alpha  occ. eigenvalues --   -0.33300
 Alpha virt. eigenvalues --    0.08180   0.11039   0.14337   0.14571   0.15248
 Alpha virt. eigenvalues --    0.19560   0.20536   0.20936   0.23616   0.24363
 Alpha virt. eigenvalues --    0.27377   0.28405   0.34017   0.34583   0.38852

 Mulliken charges:
               1
     1  B    0.127984
     2  N   -0.483657
     3  N   -0.479178
     4  B    0.129329
     5  H    0.235100
     6  H    0.235100
     7  H   -0.059462
     8  H   -0.059462
     9  H    0.229997
    10  H    0.229997
    11  H   -0.052873
    12  H   -0.052873
 Sum of Mulliken charges =  -0.00000

 Dipole moment (field-independent basis, Debye):
    X=              0.0941    Y=              0.1543    Z=             -0.0000  Tot=              0.1807
 Quadrupole moment (field-independent basis, Debye-Ang):
   XX=            -21.2233   YY=            -33.1408   ZZ=            -26.4389
   XY=              1.9281   XZ=              0.0000   YZ=             -0.0000

 Normal termination of Gaussian 09 at Thu Mar  9 15:27:35 2017.
